 Gaussian 16, Revision C.01,
 Gaussian 16:  ES64L-G16RevC.01  3-Jul-2019

 ------------------------------------------------------
 # opt freq b3lyp/6-31g(d,p) geom=connectivity em=gd3bj
 ------------------------------------------------------

 -------------------
 Title Card Required
 -------------------
 Symbolic Z-matrix:
 Charge =  0 Multiplicity = 1

 SCF Done:  E(RB3LYP) =  -805.198889349     A.U. after   14 cycles
 SCF Done:  E(RB3LYP) =  -805.207855798     A.U. after   13 cycles
 SCF Done:  E(RB3LYP) =  -805.209060269     A.U. after   12 cycles
 SCF Done:  E(RB3LYP) =  -805.209040555     A.U. after   12 cycles
 SCF Done:  E(RB3LYP) =  -805.206078256     A.U. after   13 cycles
 SCF Done:  E(RB3LYP) =  -805.205844801     A.U. after   13 cycles
 SCF Done:  E(RB3LYP) =  -805.209267440     A.U. after   10 cycles
 SCF Done:  E(RB3LYP) =  -805.209462467     A.U. after   12 cycles
 SCF Done:  E(RB3LYP) =  -805.210646963     A.U. after   14 cycles
 SCF Done:  E(RB3LYP) =  -805.215970216     A.U. after   15 cycles
 SCF Done:  E(RB3LYP) =  -805.220220012     A.U. after   15 cycles
 SCF Done:  E(RB3LYP) =  -805.220923472     A.U. after   13 cycles
 SCF Done:  E(RB3LYP) =  -805.221032638     A.U. after   12 cycles
 SCF Done:  E(RB3LYP) =  -805.221039407     A.U. after   11 cycles
 SCF Done:  E(RB3LYP) =  -805.221039969     A.U. after    8 cycles
 Optimization completed.
    -- Stationary point found.
 Normal termination of Gaussian 16 at Thu May  4 16:43:55 2023.

 ----------------------------------------------------------------------
 #N Geom=AllCheck Guess=TCheck SCRF=Check GenChk RB3LYP/6-31G(d,p) Freq
 ----------------------------------------------------------------------

 Structure from the checkpoint file:  "reactant0.chk"
 -------------------
 Title Card Required
 -------------------
 Charge =  0 Multiplicity = 1

                         Standard orientation:
 ---------------------------------------------------------------------
 Center     Atomic      Atomic             Coordinates (Angstroms)
 Number     Number       Type             X           Y           Z
 ---------------------------------------------------------------------
      1          6           0        2.429819   -0.955394    0.000078
      2          6           0        1.070554   -1.243735    0.000105
      3          6           0        0.130971   -0.198400    0.000073
      4          6           0        0.566265    1.132880   -0.000129
      5          6           0        1.929981    1.413491   -0.000079
      6          6           0        2.861057    0.373681    0.000008
      7          1           0        3.153730   -1.763733    0.000240
      8          1           0        0.713851   -2.267110    0.000101
      9          1           0       -0.158952    1.936423   -0.000123
     10          1           0        2.265841    2.445180   -0.000221
     11          1           0        3.923181    0.598274   -0.000046
     12          6           0       -1.292895   -0.601729   -0.000024
     13          8           0       -1.709046   -1.720720   -0.000216
     14         17           0       -2.494106    0.781881    0.000093
 ---------------------------------------------------------------------

 SCF Done:  E(RB3LYP) =  -805.221039969     A.U. after    1 cycles

 The electronic state is 1-A.
 Alpha  occ. eigenvalues -- -101.54118 -19.18014 -10.33948 -10.23025 -10.21987
 Alpha  occ. eigenvalues --  -10.21915 -10.21865 -10.21452 -10.21447  -9.45880
 Alpha  occ. eigenvalues --   -7.22173  -7.21380  -7.21271  -1.08929  -0.88367
 Alpha  occ. eigenvalues --   -0.83948  -0.78126  -0.77030  -0.65941  -0.62919
 Alpha  occ. eigenvalues --   -0.57544  -0.53097  -0.49178  -0.48019  -0.45956
 Alpha  occ. eigenvalues --   -0.44629  -0.44622  -0.44460  -0.38354  -0.38187
 Alpha  occ. eigenvalues --   -0.36663  -0.31939  -0.31907  -0.29325  -0.27936
 Alpha  occ. eigenvalues --   -0.27584
 Alpha virt. eigenvalues --   -0.07757  -0.02414   0.01978   0.02654   0.08335
 Alpha virt. eigenvalues --    0.12955   0.14585   0.14840   0.16880   0.17527
 Alpha virt. eigenvalues --    0.23627   0.25605   0.27239   0.28444   0.32177

 Mulliken charges:
               1
     1  C   -0.088271
     2  C   -0.087028
     3  C    0.070757
     4  C   -0.100704
     5  C   -0.093181
     6  C   -0.069056
     7  H    0.103568
     8  H    0.127479
     9  H    0.127204
    10  H    0.103462
    11  H    0.103145
    12  C    0.247630
    13  O   -0.371792
    14  Cl  -0.073211
 Sum of Mulliken charges =  -0.00000

 Dipole moment (field-independent basis, Debye):
    X=              4.0200    Y=              1.0358    Z=              0.0002  Tot=              4.1513
 Quadrupole moment (field-independent basis, Debye-Ang):
   XX=            -56.9457   YY=            -55.3874   ZZ=            -59.5245
   XY=             -2.1719   XZ=             -0.0003   YZ=             -0.0014

  Exact polarizability:     120.987      -2.407      94.409       0.000      -0.002      31.050
 Approx polarizability:     184.293      -0.721     178.271       0.001      -0.002      47.777

                      1                      2                      3
                      A                      A                      A
 Frequencies --     48.1017               153.8756               195.1366
 Red. masses --      6.2808                 5.2086                 7.6772
 Frc consts  --      0.0086                 0.0727                 0.1722
 IR Inten    --      0.1075                 0.5582                 1.0668

                      4                      5                      6
                      A                      A                      A
 Frequencies --    320.0933               413.5562               413.7931
 Red. masses --      8.5078                13.8802                 2.9417
 Frc consts  --      0.5136                 1.3987                 0.2968
 IR Inten    --     16.4964                11.1913                 0.0183

                      7                      8                      9
                      A                      A                      A
 Frequencies --    433.1034               506.0754               631.6086
 Red. masses --      3.8968                 9.5860                 6.4262
 Frc consts  --      0.4307                 1.4465                 1.5104
 IR Inten    --      0.0171                 5.2181                 2.2343

                     10                     11                     12
                      A                      A                      A
 Frequencies --    658.6367               683.5179               699.3520
 Red. masses --      5.2821                 7.5938                 1.8450
 Frc consts  --      1.3500                 2.0903                 0.5317
 IR Inten    --     20.2610               104.1438                36.7174

                     13                     14                     15
                      A                      A                      A
 Frequencies --    792.0553               862.7908               887.4166
 Red. masses --      1.8975                 1.2479                 7.3133
 Frc consts  --      0.7014                 0.5473                 3.3933
 IR Inten    --     16.0271                 0.0180               238.3567

                     16                     17                     18
                      A                      A                      A
 Frequencies --    960.3534               990.6837              1014.9091
 Red. masses --      1.3752                 1.3601                 1.2889
 Frc consts  --      0.7473                 0.7865                 0.7822
 IR Inten    --      1.5316                 0.0480                 0.0148

                     19                     20                     21
                      A                      A                      A
 Frequencies --   1020.9497              1056.7504              1118.4873
 Red. masses --      6.0729                 2.1540                 1.5217
 Frc consts  --      3.7295                 1.4173                 1.1216
 IR Inten    --      0.3585                 0.8712                 2.9061

                     22                     23                     24
                      A                      A                      A
 Frequencies --   1192.4062              1202.6646              1230.6872
 Red. masses --      1.1016                 1.3396                 2.7412
 Frc consts  --      0.9228                 1.1416                 2.4461
 IR Inten    --      1.3107               100.4506               130.3062

                     25                     26                     27
                      A                      A                      A
 Frequencies --   1345.1691              1372.0001              1491.3970
 Red. masses --      1.4783                 4.9709                 2.2746
 Frc consts  --      1.5760                 5.5131                 2.9809
 IR Inten    --      3.0149                 5.9926                20.6386

                     28                     29                     30
                      A                      A                      A
 Frequencies --   1530.9254              1637.5305              1655.6961
 Red. masses --      2.1807                 5.5835                 5.6243
 Frc consts  --      3.0112                 8.8213                 9.0840
 IR Inten    --      0.2550                 8.7301                22.4268

                     31                     32                     33
                      A                      A                      A
 Frequencies --   1863.6299              3190.8711              3203.4471
 Red. masses --     13.1380                 1.0864                 1.0904
 Frc consts  --     26.8843                 6.5169                 6.5926
 IR Inten    --    285.5338                 0.6128                10.7317

                     34                     35                     36
                      A                      A                      A
 Frequencies --   3212.4064              3228.0282              3239.7309
 Red. masses --      1.0953                 1.0942                 1.0928
 Frc consts  --      6.6598                 6.7176                 6.7580
 IR Inten    --     13.9778                 4.6326                 1.0346

 - Thermochemistry -
 -------------------
 Temperature   298.150 Kelvin.  Pressure   1.00000 Atm.
 Atom     1 has atomic number  6 and mass  12.00000

 Molecular mass:   140.00289 amu.
 Principal axes and moments of inertia in atomic units:
                           1         2         3
     Eigenvalues --   580.613981950.084002530.69797
           X            0.99998   0.00604   0.00000
           Y           -0.00604   0.99998  -0.00001
           Z           -0.00000   0.00001   1.00000
 This molecule is an asymmetric top.
 Rotational symmetry number  1.
 Warning -- assumption of classical behavior for rotation
           may cause significant error
 Rotational temperatures (Kelvin)      0.14918     0.04442     0.03423
 Rotational constants (GHZ):           3.10833     0.92547     0.71314
 Zero-point vibrational energy     265916.9 (Joules/Mol)
                                   63.55567 (Kcal/Mol)
 Warning -- explicit consideration of   8 degrees of freedom as
           vibrations may cause significant error
 Vibrational temperatures:     69.21   221.39   280.76   460.54   595.02
          (Kelvin)            595.36   623.14   728.13   908.74   947.63
                              983.43  1006.21  1139.59  1241.36  1276.79
                             1381.73  1425.37  1460.23  1468.92  1520.43
                             1609.25  1715.61  1730.37  1770.68  1935.40
                             1974.00  2145.79  2202.66  2356.04  2382.18
                             2681.35  4590.95  4609.05  4621.94  4644.41
                             4661.25

 Zero-point correction=                           0.101282 (Hartree/Particle)
 Thermal correction to Energy=                    0.108636
 Thermal correction to Enthalpy=                  0.109580
 Thermal correction to Gibbs Free Energy=         0.068190
 Sum of electronic and zero-point Energies=           -805.119758
 Sum of electronic and thermal Energies=              -805.112404
 Sum of electronic and thermal Enthalpies=            -805.111460
 Sum of electronic and thermal Free Energies=         -805.152850

                     E (Thermal)             CV                S
                      KCal/Mol        Cal/Mol-Kelvin    Cal/Mol-Kelvin
 Total                   68.170             27.344             87.112
 Electronic               0.000              0.000              0.000
 Translational            0.889              2.981             40.721
 Rotational               0.889              2.981             29.440
 Vibrational             66.392             21.382             16.951
 Vibration     1          0.595              1.978              4.894
 Vibration     2          0.619              1.898              2.624
 Vibration     3          0.636              1.847              2.178
 Vibration     4          0.706              1.635              1.310
 Vibration     5          0.777              1.441              0.914
 Vibration     6          0.777              1.440              0.913
 Vibration     7          0.794              1.398              0.849
 Vibration     8          0.861              1.237              0.643

 Optimization completed.
    -- Stationary point found.
 Normal termination of Gaussian 16 at Thu May  4 16:47:43 2023.
