 Gaussian 16, Revision A.03,
 Gaussian 16:  ES64L-G16RevA.03 25-Dec-2016

 ---------------------------------------------
 # opt(calcall) freq b3lyp/6-31g(d,p) em=gd3bj
 ---------------------------------------------

 -------------------
 Title Card Required
 -------------------
 Symbolic Z-matrix:
 Charge =  0 Multiplicity = 1

 SCF Done:  E(RB3LYP) =  -577.964388175     A.U. after   14 cycles
 SCF Done:  E(RB3LYP) =  -577.964393711     A.U. after   11 cycles
 SCF Done:  E(RB3LYP) =  -577.964389126     A.U. after   11 cycles
 SCF Done:  E(RB3LYP) =  -577.964388620     A.U. after   10 cycles
 SCF Done:  E(RB3LYP) =  -577.964368634     A.U. after   10 cycles
 SCF Done:  E(RB3LYP) =  -577.964393666     A.U. after   11 cycles
 SCF Done:  E(RB3LYP) =  -577.964394937     A.U. after    8 cycles
 SCF Done:  E(RB3LYP) =  -577.964395436     A.U. after    8 cycles
 SCF Done:  E(RB3LYP) =  -577.964399578     A.U. after   10 cycles
 SCF Done:  E(RB3LYP) =  -577.964396109     A.U. after    9 cycles
 SCF Done:  E(RB3LYP) =  -577.964396124     A.U. after    7 cycles
 Optimization completed on the basis of negligible forces.
    -- Stationary point found.
 Normal termination of Gaussian 16 at Wed Sep 13 17:25:02 2023.

 ----------------------------------------------------------------------
 #N Geom=AllCheck Guess=TCheck SCRF=Check GenChk RB3LYP/6-31G(d,p) Freq
 ----------------------------------------------------------------------

 Structure from the checkpoint file:  "/home/pub16/lsh/Gau-1166287.chk"
 -------------------
 Title Card Required
 -------------------
 Charge =  0 Multiplicity = 1

                         Standard orientation:
 ---------------------------------------------------------------------
 Center     Atomic      Atomic             Coordinates (Angstroms)
 Number     Number       Type             X           Y           Z
 ---------------------------------------------------------------------
      1          6           0       -0.053730   -0.773380   -3.843624
      2          6           0        0.053730    0.773380   -3.843624
      3          1           0        0.761772   -1.254285   -4.391048
      4          1           0       -1.005166   -1.126138   -4.255190
      5          1           0        1.005166    1.126138   -4.255190
      6          1           0       -0.761772    1.254285   -4.391048
      7          5           0        0.000000   -0.000000   -1.710452
      8          8           0       -0.019956    1.148756   -2.458961
      9          8           0        0.019956   -1.148756   -2.458961
     10          6           0        0.000000   -0.000000   -0.157795
     11          6           0       -0.000000   -1.207766    0.559726
     12          6           0        0.000000    1.207766    0.559726
     13          6           0        0.000293   -1.217567    1.949399
     14          1           0       -0.000298   -2.146978    0.015925
     15          6           0       -0.000293    1.217567    1.949399
     16          1           0        0.000298    2.146978    0.015925
     17          6           0       -0.000000    0.000000    2.649664
     18          1           0        0.000434   -2.151269    2.500846
     19          1           0       -0.000434    2.151269    2.500846
     20          6           0       -0.000000    0.000000    4.082706
     21          7           0       -0.000000    0.000000    5.245873
 ---------------------------------------------------------------------

 SCF Done:  E(RB3LYP) =  -577.964396124     A.U. after    1 cycles

 The electronic state is 1-A.
 Alpha  occ. eigenvalues --  -19.17164 -19.17163 -14.33353 -10.25896 -10.25876
 Alpha  occ. eigenvalues --  -10.23964 -10.22610 -10.21461 -10.21460 -10.20835
 Alpha  occ. eigenvalues --  -10.20834 -10.19304  -6.79010  -1.07776  -1.01057
 Alpha  occ. eigenvalues --   -0.90447  -0.87178  -0.78163  -0.76540  -0.75378
 Alpha  occ. eigenvalues --   -0.64935  -0.64833  -0.62164  -0.55974  -0.54405
 Alpha  occ. eigenvalues --   -0.51484  -0.51132  -0.48108  -0.47157  -0.45233
 Alpha  occ. eigenvalues --   -0.43912  -0.43787  -0.42732  -0.40253  -0.36856
 Alpha  occ. eigenvalues --   -0.36621  -0.36126  -0.35245  -0.35045  -0.34577
 Alpha  occ. eigenvalues --   -0.33847  -0.32671  -0.28951  -0.27073  -0.26235
 Alpha virt. eigenvalues --   -0.06296  -0.01852   0.03969   0.04410   0.06413
 Alpha virt. eigenvalues --    0.08944   0.10504   0.10805   0.11916   0.13461
 Alpha virt. eigenvalues --    0.14108   0.14870   0.16004   0.17849   0.19277

 Mulliken charges:
               1
     1  C    0.011993
     2  C    0.011993
     3  H    0.117976
     4  H    0.118174
     5  H    0.118174
     6  H    0.117976
     7  B    0.461224
     8  O   -0.446372
     9  O   -0.446372
    10  C    0.044725
    11  C   -0.138298
    12  C   -0.138298
    13  C   -0.070993
    14  H    0.111580
    15  C   -0.070993
    16  H    0.111580
    17  C    0.094304
    18  H    0.112786
    19  H    0.112786
    20  C    0.243069
    21  N   -0.477015
 Sum of Mulliken charges =   0.00000

 Dipole moment (field-independent basis, Debye):
    X=             -0.0000    Y=              0.0000    Z=             -6.6080  Tot=              6.6080
 Quadrupole moment (field-independent basis, Debye-Ang):
   XX=            -73.5786   YY=            -70.0936   ZZ=            -85.9626
   XY=              0.1620   XZ=              0.0000   YZ=              0.0000

  Exact polarizability:  53.106   0.292 101.915  -0.000  -0.000 188.101
 Approx polarizability:  80.243  -0.018 174.042   0.000  -0.000 267.448

                      1                      2                      3
                      A                      B                      A
 Frequencies --     45.4341                54.7834                61.2054
 Red. masses --      2.1953                 5.9195                 3.9938
 Frc consts  --      0.0027                 0.0105                 0.0088
 IR Inten    --      0.0316                 0.1189                 0.0750

                      4                      5                      6
                      B                      B                      B
 Frequencies --     85.1906               137.5558               168.6870
 Red. masses --      6.2939                 5.3369                 6.8218
 Frc consts  --      0.0269                 0.0595                 0.1144
 IR Inten    --      0.2730                10.2722                 6.8251

                      7                      8                      9
                      B                      A                      B
 Frequencies --    241.8882               269.0615               385.0423
 Red. masses --      6.1473                 8.5488                 6.4979
 Frc consts  --      0.2119                 0.3646                 0.5676
 IR Inten    --      0.2376                 0.0399                 1.1495

                     10                     11                     12
                      A                      B                      A
 Frequencies --    407.4499               419.3963               541.1925
 Red. masses --      2.9254                 5.8641                 7.7720
 Frc consts  --      0.2861                 0.6077                 1.3412
 IR Inten    --      0.0001                 2.7349                 1.5746

                     13                     14                     15
                      B                      B                      B
 Frequencies --    564.0577               568.1434               641.7404
 Red. masses --      7.4977                 4.7236                 4.4797
 Frc consts  --      1.4055                 0.8983                 1.0870
 IR Inten    --      0.2683                 3.7367                45.2553

                     16                     17                     18
                      B                      B                      B
 Frequencies --    657.9501               711.6949               754.4023
 Red. masses --      7.3837                 5.1269                 4.5134
 Frc consts  --      1.8833                 1.5300                 1.5134
 IR Inten    --      0.3650                 6.5833                 2.8931

                     19                     20                     21
                      A                      A                      B
 Frequencies --    770.7191               828.0434               850.6087
 Red. masses --      8.2909                 8.9771                 1.2223
 Frc consts  --      2.9016                 3.6266                 0.5211
 IR Inten    --      3.5826                 8.3382                 3.1081

                     22                     23                     24
                      B                      A                      A
 Frequencies --    860.5361               869.6874               952.4405
 Red. masses --      1.5527                 1.2474                 3.0803
 Frc consts  --      0.6774                 0.5559                 1.6463
 IR Inten    --     24.1153                 0.0000                17.6567

                     25                     26                     27
                      A                      B                      A
 Frequencies --    994.3657               994.4807              1015.0354
 Red. masses --      1.3603                 1.2988                 6.8276
 Frc consts  --      0.7925                 0.7568                 4.1446
 IR Inten    --      0.0000                 0.0056                26.0112

                     28                     29                     30
                      B                      A                      A
 Frequencies --   1037.1656              1045.8080              1130.6463
 Red. masses --      5.7327                 2.9498                 5.6530
 Frc consts  --      3.6334                 1.9009                 4.2578
 IR Inten    --      4.4179                37.0455               182.5896

                     31                     32                     33
                      B                      A                      A
 Frequencies --   1137.1210              1158.6753              1209.9225
 Red. masses --      1.4248                 1.6376                 1.3154
 Frc consts  --      1.0854                 1.2953                 1.1346
 IR Inten    --      4.9867                 0.0189                 1.9067

                     34                     35                     36
                      A                      B                      A
 Frequencies --   1232.3369              1242.5565              1252.0402
 Red. masses --      2.6298                 1.1365                 1.0793
 Frc consts  --      2.3531                 1.0338                 0.9969
 IR Inten    --      1.3577                 4.2084                 1.4093

                     37                     38                     39
                      B                      B                      B
 Frequencies --   1255.3134              1334.6590              1339.3191
 Red. masses --      2.4532                 5.6511                 1.3897
 Frc consts  --      2.2777                 5.9309                 1.4687
 IR Inten    --    105.7990                 0.0477                 1.8932

                     40                     41                     42
                      A                      A                      B
 Frequencies --   1371.7643              1411.6278              1431.8235
 Red. masses --      1.9789                 2.2556                 2.2913
 Frc consts  --      2.1940                 2.6482                 2.7677
 IR Inten    --    384.4140               282.8132                 0.8480

                     43                     44                     45
                      B                      B                      A
 Frequencies --   1455.6938              1536.0546              1546.2164
 Red. masses --      2.3768                 1.1168                 1.1956
 Frc consts  --      2.9674                 1.5525                 1.6842
 IR Inten    --     80.2699                 4.9294                 0.8097

                     46                     47                     48
                      A                      B                      A
 Frequencies --   1555.8141              1600.4576              1668.8004
 Red. masses --      2.2003                 6.4538                 5.7099
 Frc consts  --      3.1380                 9.7399                 9.3689
 IR Inten    --     21.8215                 5.4321                22.1530

                     49                     50                     51
                      A                      B                      A
 Frequencies --   2350.4861              3057.4936              3062.5226
 Red. masses --     12.6813                 1.0580                 1.0625
 Frc consts  --     41.2790                 5.8275                 5.8711
 IR Inten    --     30.4352                36.5906                81.0644

                     52                     53                     54
                      A                      B                      A
 Frequencies --   3098.1125              3118.5579              3199.8986
 Red. masses --      1.1070                 1.1102                 1.0887
 Frc consts  --      6.2600                 6.3616                 6.5679
 IR Inten    --     10.3953                51.6835                 2.7770

                     55                     56                     57
                      B                      B                      A
 Frequencies --   3200.3191              3217.0178              3218.4390
 Red. masses --      1.0882                 1.0948                 1.0960
 Frc consts  --      6.5664                 6.6757                 6.6891
 IR Inten    --      1.6787                10.0539                 0.5517

 - Thermochemistry -
 -------------------
 Temperature   298.150 Kelvin.  Pressure   1.00000 Atm.
 Atom     1 has atomic number  6 and mass  12.00000

 Molecular mass:   173.06481 amu.
 Principal axes and moments of inertia in atomic units:
                           1         2         3
     Eigenvalues --   552.775815140.414395669.72317
           X            0.00000   0.00412   0.99999
           Y            0.00000   0.99999  -0.00412
           Z            1.00000  -0.00000  -0.00000
 This molecule is an asymmetric top.
 Rotational symmetry number  2.
 Warning -- assumption of classical behavior for rotation
           may cause significant error
 Rotational temperatures (Kelvin)      0.15669     0.01685     0.01528
 Rotational constants (GHZ):           3.26487     0.35109     0.31831
 Zero-point vibrational energy     420651.6 (Joules/Mol)
                                  100.53815 (Kcal/Mol)
 Warning -- explicit consideration of  14 degrees of freedom as
           vibrations may cause significant error
 Vibrational temperatures:     65.37    78.82    88.06   122.57   197.91
          (Kelvin)            242.70   348.02   387.12   553.99   586.23
                              603.42   778.66   811.55   817.43   923.32
                              946.64  1023.97  1085.42  1108.89  1191.37
                             1223.84  1238.12  1251.29  1370.35  1430.67
                             1430.84  1460.41  1492.25  1504.68  1626.75
                             1636.06  1667.08  1740.81  1773.06  1787.76
                             1801.41  1806.12  1920.28  1926.98  1973.66
                             2031.02  2060.07  2094.42  2210.04  2224.66
                             2238.47  2302.70  2401.03  3381.83  4399.05
                             4406.29  4457.49  4486.91  4603.94  4604.55
                             4628.57  4630.62

 Zero-point correction=                           0.160218 (Hartree/Particle)
 Thermal correction to Energy=                    0.171235
 Thermal correction to Enthalpy=                  0.172179
 Thermal correction to Gibbs Free Energy=         0.122144
 Sum of electronic and zero-point Energies=           -577.804178
 Sum of electronic and thermal Energies=              -577.793161
 Sum of electronic and thermal Enthalpies=            -577.792217
 Sum of electronic and thermal Free Energies=         -577.842253

                     E (Thermal)             CV                S
                      KCal/Mol        Cal/Mol-Kelvin    Cal/Mol-Kelvin
 Total                  107.451             40.096            105.308
 Electronic               0.000              0.000              0.000
 Translational            0.889              2.981             41.353
 Rotational               0.889              2.981             29.778
 Vibrational            105.674             34.134             34.178
 Vibration     1          0.595              1.979              5.007
 Vibration     2          0.596              1.976              4.637
 Vibration     3          0.597              1.973              4.418
 Vibration     4          0.601              1.959              3.768
 Vibration     5          0.614              1.916              2.838
 Vibration     6          0.625              1.881              2.450
 Vibration     7          0.658              1.776              1.789
 Vibration     8          0.673              1.730              1.602
 Vibration     9          0.754              1.502              1.019
 Vibration    10          0.772              1.454              0.936
 Vibration    11          0.782              1.428              0.894
 Vibration    12          0.896              1.159              0.563
 Vibration    13          0.920              1.109              0.516
 Vibration    14          0.924              1.100              0.508

 Optimization completed.
    -- Stationary point found.
 Normal termination of Gaussian 16 at Wed Sep 13 17:26:02 2023.
