 Gaussian 16, Revision C.01,
 Gaussian 16:  ES64L-G16RevC.01  3-Jul-2019

 ------------------------------------------------------
 # opt freq b3lyp/6-31g(d,p) geom=connectivity em=gd3bj
 ------------------------------------------------------

 -------------------
 Title Card Required
 -------------------
 Symbolic Z-matrix:
 Charge =  0 Multiplicity = 1

 SCF Done:  E(RB3LYP) =  -500.498148749     A.U. after   15 cycles
 SCF Done:  E(RB3LYP) =  -500.533119076     A.U. after   13 cycles
 SCF Done:  E(RB3LYP) =  -500.543908902     A.U. after   13 cycles
 SCF Done:  E(RB3LYP) =  -500.544260367     A.U. after   11 cycles
 SCF Done:  E(RB3LYP) =  -500.544112236     A.U. after   11 cycles
 SCF Done:  E(RB3LYP) =  -500.544280507     A.U. after   11 cycles
 SCF Done:  E(RB3LYP) =  -500.544289188     A.U. after    9 cycles
 SCF Done:  E(RB3LYP) =  -500.544292069     A.U. after    9 cycles
 SCF Done:  E(RB3LYP) =  -500.544303699     A.U. after    9 cycles
 SCF Done:  E(RB3LYP) =  -500.544989875     A.U. after   14 cycles
 SCF Done:  E(RB3LYP) =  -500.545295604     A.U. after   14 cycles
 SCF Done:  E(RB3LYP) =  -500.549593929     A.U. after   15 cycles
 SCF Done:  E(RB3LYP) =  -500.552595889     A.U. after   15 cycles
 SCF Done:  E(RB3LYP) =  -500.548908003     A.U. after   15 cycles
 SCF Done:  E(RB3LYP) =  -500.549052048     A.U. after   13 cycles
 SCF Done:  E(RB3LYP) =  -500.552742482     A.U. after   11 cycles
 SCF Done:  E(RB3LYP) =  -500.552611546     A.U. after   15 cycles
 SCF Done:  E(RB3LYP) =  -500.553043006     A.U. after   13 cycles
 SCF Done:  E(RB3LYP) =  -500.553049776     A.U. after    9 cycles
 Optimization completed.
    -- Stationary point found.
 Normal termination of Gaussian 16 at Thu May  4 16:52:27 2023.

 ----------------------------------------------------------------------
 #N Geom=AllCheck Guess=TCheck SCRF=Check GenChk RB3LYP/6-31G(d,p) Freq
 ----------------------------------------------------------------------

 Structure from the checkpoint file:  "reactant1.chk"
 -------------------
 Title Card Required
 -------------------
 Charge =  0 Multiplicity = 1

                         Standard orientation:
 ---------------------------------------------------------------------
 Center     Atomic      Atomic             Coordinates (Angstroms)
 Number     Number       Type             X           Y           Z
 ---------------------------------------------------------------------
      1          6           0       -1.884283   -0.000035    0.000050
      2          6           0       -1.183087   -1.216820   -0.000024
      3          6           0        0.206680   -1.206286   -0.000072
      4          6           0        0.927084   -0.000155    0.000241
      5          6           0        0.206820    1.205975    0.000501
      6          6           0       -1.182999    1.216664    0.000274
      7          1           0       -1.733967   -2.150978   -0.000061
      8          1           0        0.749688   -2.145690   -0.000589
      9          1           0        0.749774    2.145420    0.001120
     10          1           0       -1.733782    2.150876    0.000256
     11          5           0        2.492080    0.000038    0.000035
     12          8           0        3.128071    1.213944   -0.000617
     13          1           0        4.091117    1.178599   -0.001267
     14          8           0        3.128300   -1.213735    0.000400
     15          1           0        4.091335   -1.178059   -0.000599
     16          6           0       -3.317238    0.000090   -0.000145
     17          7           0       -4.480485    0.000195   -0.000323
 ---------------------------------------------------------------------

 SCF Done:  E(RB3LYP) =  -500.553049776     A.U. after    1 cycles

 The electronic state is 1-A.
 Alpha  occ. eigenvalues --  -19.17825 -19.17824 -14.33029 -10.23529 -10.22305
 Alpha  occ. eigenvalues --  -10.21031 -10.21031 -10.20298 -10.20297 -10.18712
 Alpha  occ. eigenvalues --   -6.80116  -1.05421  -1.02102  -0.90115  -0.86718
 Alpha  occ. eigenvalues --   -0.77424  -0.76062  -0.65000  -0.62241  -0.58021
 Alpha  occ. eigenvalues --   -0.55883  -0.55427  -0.47539  -0.46449  -0.45349
 Alpha  occ. eigenvalues --   -0.43382  -0.42292  -0.40852  -0.39146  -0.36355
 Alpha  occ. eigenvalues --   -0.35728  -0.35250  -0.34056  -0.33771  -0.33707
 Alpha  occ. eigenvalues --   -0.32328  -0.26631  -0.25857
 Alpha virt. eigenvalues --   -0.05841  -0.01389   0.03026   0.04280   0.04712
 Alpha virt. eigenvalues --    0.09234   0.09785   0.11970   0.13901   0.16235
 Alpha virt. eigenvalues --    0.18253   0.19684   0.20020   0.21016   0.27971

 Mulliken charges:
               1
     1  C    0.093511
     2  C   -0.070913
     3  C   -0.133189
     4  C    0.053911
     5  C   -0.133185
     6  C   -0.070929
     7  H    0.110094
     8  H    0.110142
     9  H    0.110145
    10  H    0.110095
    11  B    0.388980
    12  O   -0.470275
    13  H    0.304570
    14  O   -0.470254
    15  H    0.304558
    16  C    0.241881
    17  N   -0.479140
 Sum of Mulliken charges =  -0.00000

 Dipole moment (field-independent basis, Debye):
    X=              7.3993    Y=              0.0003    Z=             -0.0021  Tot=              7.3993
 Quadrupole moment (field-independent basis, Debye-Ang):
   XX=            -62.2857   YY=            -58.2686   ZZ=            -63.2543
   XY=              0.0046   XZ=             -0.0143   YZ=              0.0043

  Exact polarizability:     154.743      -0.001      88.853       0.000       0.007      36.155
 Approx polarizability:     238.097      -0.004     152.840       0.007       0.011      55.023

                      1                      2                      3
                      A                      A                      A
 Frequencies --     54.2821                74.1181               117.8248
 Red. masses --      6.1901                 7.2967                 8.0940
 Frc consts  --      0.0107                 0.0236                 0.0662
 IR Inten    --      0.0000                 0.0223                 0.3198

                      4                      5                      6
                      A                      A                      A
 Frequencies --    191.0306               199.0702               297.6897
 Red. masses --      5.9328                 6.0766                 8.3995
 Frc consts  --      0.1276                 0.1419                 0.4386
 IR Inten    --      8.8699                14.0126                 2.5878

                      7                      8                      9
                      A                      A                      A
 Frequencies --    396.0268               397.0202               419.0035
 Red. masses --      1.5198                 3.9761                 1.5815
 Frc consts  --      0.1404                 0.3693                 0.1636
 IR Inten    --      0.0001                11.9288                 0.0002

                     10                     11                     12
                      A                      A                      A
 Frequencies --    423.7103               491.8588               527.1054
 Red. masses --      7.3965                 4.5703                 1.5813
 Frc consts  --      0.7824                 0.6514                 0.2589
 IR Inten    --      3.8002                35.4131               168.7553

                     13                     14                     15
                      A                      A                      A
 Frequencies --    565.6413               576.6891               639.8688
 Red. masses --      7.3486                 2.8561                 4.1895
 Frc consts  --      1.3853                 0.5596                 1.0106
 IR Inten    --      0.4981                18.1735                20.6133

                     16                     17                     18
                      A                      A                      A
 Frequencies --    645.3256               659.1245               758.1682
 Red. masses --      4.5531                 7.4132                 4.4832
 Frc consts  --      1.1172                 1.8975                 1.5183
 IR Inten    --     91.9312                 0.4382                 1.7637

                     19                     20                     21
                      A                      A                      A
 Frequencies --    808.4122               861.5885               869.5620
 Red. masses --      6.4284                 1.5580                 1.2480
 Frc consts  --      2.4753                 0.6814                 0.5560
 IR Inten    --      1.8250                27.6631                 0.0001

                     22                     23                     24
                      A                      A                      A
 Frequencies --    944.1334               996.1734               996.2039
 Red. masses --      1.1020                 1.3077                 1.3506
 Frc consts  --      0.5787                 0.7646                 0.7897
 IR Inten    --    193.6038                 0.0021                 0.0003

                     25                     26                     27
                      A                      A                      A
 Frequencies --   1009.6531              1046.2412              1131.9823
 Red. masses --      2.8114                 2.7541                 2.4137
 Frc consts  --      1.6885                 1.7762                 1.8223
 IR Inten    --    180.4290                 2.7967                 8.4228

                     28                     29                     30
                      A                      A                      A
 Frequencies --   1137.6511              1210.6618              1232.8514
 Red. masses --      1.3991                 1.3239                 2.6196
 Frc consts  --      1.0669                 1.1433                 2.3459
 IR Inten    --      3.7432                 0.0031                 1.1455

                     31                     32                     33
                      A                      A                      A
 Frequencies --   1330.2895              1339.2600              1390.4201
 Red. masses --      5.4437                 1.4492                 3.4990
 Frc consts  --      5.6759                 1.5315                 3.9856
 IR Inten    --     19.5417                 1.9083               332.3201

                     34                     35                     36
                      A                      A                      A
 Frequencies --   1413.2356              1448.0650              1551.3690
 Red. masses --      5.4180                 3.5659                 2.5229
 Frc consts  --      6.3756                 4.4055                 3.5774
 IR Inten    --    153.9495               148.7483                 7.2676

                     37                     38                     39
                      A                      A                      A
 Frequencies --   1601.4850              1667.5619              2349.7488
 Red. masses --      6.5704                 5.7083                12.6814
 Frc consts  --      9.9287                 9.3524                41.2536
 IR Inten    --     11.1373                13.9161                31.0670

                     40                     41                     42
                      A                      A                      A
 Frequencies --   3201.2731              3201.8704              3216.5153
 Red. masses --      1.0883                 1.0877                 1.0949
 Frc consts  --      6.5710                 6.5699                 6.6743
 IR Inten    --      2.7312                 0.8135                12.7146

                     43                     44                     45
                      A                      A                      A
 Frequencies --   3218.2193              3861.0635              3865.2455
 Red. masses --      1.0961                 1.0670                 1.0652
 Frc consts  --      6.6887                 9.3722                 9.3767
 IR Inten    --      0.2876                 8.8244                69.3554

 - Thermochemistry -
 -------------------
 Temperature   298.150 Kelvin.  Pressure   1.00000 Atm.
 Atom     1 has atomic number  6 and mass  12.00000

 Molecular mass:   147.04916 amu.
 Principal axes and moments of inertia in atomic units:
                           1         2         3
     Eigenvalues --   496.313903295.885023792.19879
           X            1.00000   0.00000  -0.00001
           Y           -0.00000   1.00000   0.00003
           Z            0.00001  -0.00003   1.00000
 This molecule is an asymmetric top.
 Rotational symmetry number  1.
 Warning -- assumption of classical behavior for rotation
           may cause significant error
 Rotational temperatures (Kelvin)      0.17451     0.02628     0.02284
 Rotational constants (GHZ):           3.63629     0.54757     0.47591
 Zero-point vibrational energy     324991.3 (Joules/Mol)
                                   77.67477 (Kcal/Mol)
 Warning -- explicit consideration of  14 degrees of freedom as
           vibrations may cause significant error
 Vibrational temperatures:     78.10   106.64   169.52   274.85   286.42
          (Kelvin)            428.31   569.79   571.22   602.85   609.62
                              707.68   758.39   813.83   829.73   920.63
                              928.48   948.33  1090.83  1163.12  1239.63
                             1251.11  1358.40  1433.27  1433.32  1452.67
                             1505.31  1628.67  1636.83  1741.87  1773.80
                             1913.99  1926.90  2000.50  2033.33  2083.44
                             2232.07  2304.18  2399.25  3380.76  4605.92
                             4606.78  4627.85  4630.30  5555.21  5561.23

 Zero-point correction=                           0.123783 (Hartree/Particle)
 Thermal correction to Energy=                    0.133487
 Thermal correction to Enthalpy=                  0.134431
 Thermal correction to Gibbs Free Energy=         0.088170
 Sum of electronic and zero-point Energies=           -500.429267
 Sum of electronic and thermal Energies=              -500.419563
 Sum of electronic and thermal Enthalpies=            -500.418618
 Sum of electronic and thermal Free Energies=         -500.464879

                     E (Thermal)             CV                S
                      KCal/Mol        Cal/Mol-Kelvin    Cal/Mol-Kelvin
 Total                   83.764             36.420             97.364
 Electronic               0.000              0.000              0.000
 Translational            0.889              2.981             40.867
 Rotational               0.889              2.981             30.207
 Vibrational             81.987             30.458             26.290
 Vibration     1          0.596              1.976              4.655
 Vibration     2          0.599              1.966              4.041
 Vibration     3          0.608              1.935              3.136
 Vibration     4          0.634              1.852              2.218
 Vibration     5          0.637              1.841              2.142
 Vibration     6          0.691              1.678              1.430
 Vibration     7          0.763              1.479              0.977
 Vibration     8          0.764              1.477              0.974
 Vibration     9          0.782              1.429              0.895
 Vibration    10          0.786              1.419              0.879
 Vibration    11          0.848              1.268              0.679
 Vibration    12          0.882              1.190              0.594
 Vibration    13          0.922              1.106              0.513
 Vibration    14          0.933              1.082              0.492

                           ! Non-Optimized Parameters !
 Normal termination of Gaussian 16 at Thu May  4 16:59:00 2023.
