 Gaussian 16, Revision C.01,
 Gaussian 16:  ES64L-G16RevC.01  3-Jul-2019

 ------------------------------------------------------
 # opt freq b3lyp/6-31g(d,p) geom=connectivity em=gd3bj
 ------------------------------------------------------

 -------------------
 Title Card Required
 -------------------
 Symbolic Z-matrix:
 Charge =  0 Multiplicity = 1

 SCF Done:  E(RB3LYP) =  -668.910800611     A.U. after   15 cycles
 SCF Done:  E(RB3LYP) =  -668.923076671     A.U. after   13 cycles
 SCF Done:  E(RB3LYP) =  -668.923439748     A.U. after   12 cycles
 SCF Done:  E(RB3LYP) =  -668.923477455     A.U. after   11 cycles
 SCF Done:  E(RB3LYP) =  -668.923293916     A.U. after   15 cycles
 SCF Done:  E(RB3LYP) =  -668.924921916     A.U. after   14 cycles
 SCF Done:  E(RB3LYP) =  -668.910088371     A.U. after   15 cycles
 SCF Done:  E(RB3LYP) =  -668.930042708     A.U. after   14 cycles
 SCF Done:  E(RB3LYP) =  -668.930110319     A.U. after   13 cycles
 SCF Done:  E(RB3LYP) =  -668.935842906     A.U. after   15 cycles
 SCF Done:  E(RB3LYP) =  -668.939721415     A.U. after   15 cycles
 SCF Done:  E(RB3LYP) =  -668.942499260     A.U. after   14 cycles
 SCF Done:  E(RB3LYP) =  -668.943064051     A.U. after   13 cycles
 SCF Done:  E(RB3LYP) =  -668.941243807     A.U. after   15 cycles
 SCF Done:  E(RB3LYP) =  -668.943533051     A.U. after   12 cycles
 SCF Done:  E(RB3LYP) =  -668.943705534     A.U. after   13 cycles
 SCF Done:  E(RB3LYP) =  -668.943741697     A.U. after   12 cycles
 SCF Done:  E(RB3LYP) =  -668.943745542     A.U. after   10 cycles
 SCF Done:  E(RB3LYP) =  -668.943745720     A.U. after    8 cycles
 Optimization completed.
    -- Stationary point found.
 Normal termination of Gaussian 16 at Thu May  4 17:15:00 2023.

 ----------------------------------------------------------------------
 #N Geom=AllCheck Guess=TCheck SCRF=Check GenChk RB3LYP/6-31G(d,p) Freq
 ----------------------------------------------------------------------

 Structure from the checkpoint file:  "target.chk"
 -------------------
 Title Card Required
 -------------------
 Charge =  0 Multiplicity = 1

                         Standard orientation:
 ---------------------------------------------------------------------
 Center     Atomic      Atomic             Coordinates (Angstroms)
 Number     Number       Type             X           Y           Z
 ---------------------------------------------------------------------
      1          6           0        4.341197   -0.036319    0.472638
      2          6           0        3.200724    0.757605    0.511771
      3          6           0        1.990678    0.286128   -0.019423
      4          6           0        1.950512   -0.980279   -0.621116
      5          6           0        3.100055   -1.766792   -0.675753
      6          6           0        4.292235   -1.300887   -0.120983
      7          1           0        5.270590    0.328614    0.898283
      8          1           0        3.219701    1.749560    0.949258
      9          1           0        1.030917   -1.338727   -1.069912
     10          1           0        3.065345   -2.740507   -1.153954
     11          1           0        5.184384   -1.918535   -0.156340
     12          6           0        0.811312    1.201574    0.016056
     13          6           0       -0.580260    0.636735    0.013314
     14          6           0       -1.603850    1.426535   -0.529946
     15          6           0       -0.898952   -0.595706    0.600487
     16          6           0       -2.917935    0.982585   -0.523351
     17          1           0       -1.343661    2.390868   -0.951084
     18          6           0       -2.215532   -1.042336    0.630039
     19          1           0       -0.119670   -1.196451    1.054490
     20          6           0       -3.229288   -0.258954    0.057922
     21          1           0       -3.709222    1.584204   -0.956131
     22          1           0       -2.467254   -1.989717    1.093050
     23          8           0        0.964826    2.416427    0.051833
     24          6           0       -4.584519   -0.723696    0.072085
     25          7           0       -5.684002   -1.102557    0.082177
 ---------------------------------------------------------------------

 SCF Done:  E(RB3LYP) =  -668.943745720     A.U. after    1 cycles

 The electronic state is 1-A.
 Alpha  occ. eigenvalues --  -19.14935 -14.34300 -10.28982 -10.25180 -10.23516
 Alpha  occ. eigenvalues --  -10.22854 -10.22684 -10.22644 -10.22455 -10.21976
 Alpha  occ. eigenvalues --  -10.21416 -10.21359 -10.21239 -10.20955 -10.20827
 Alpha  occ. eigenvalues --  -10.20768  -1.04890  -0.91457  -0.88782  -0.87324
 Alpha  occ. eigenvalues --   -0.80512  -0.78097  -0.77164  -0.76365  -0.68799
 Alpha  occ. eigenvalues --   -0.64486  -0.63493  -0.62103  -0.57599  -0.57114
 Alpha  occ. eigenvalues --   -0.53744  -0.49791  -0.49099  -0.47283  -0.46751
 Alpha  occ. eigenvalues --   -0.45422  -0.45213  -0.43959  -0.43876  -0.41900
 Alpha  occ. eigenvalues --   -0.40787  -0.40028  -0.38190  -0.37545  -0.36767
 Alpha  occ. eigenvalues --   -0.36414  -0.35897  -0.34832  -0.33660  -0.28485
 Alpha  occ. eigenvalues --   -0.27685  -0.27195  -0.27017  -0.25910
 Alpha virt. eigenvalues --   -0.08801  -0.04402  -0.03296  -0.01815   0.02518
 Alpha virt. eigenvalues --    0.03069   0.07877   0.08386   0.08617   0.12478
 Alpha virt. eigenvalues --    0.13122   0.14307   0.14495   0.15004   0.16712

 Mulliken charges:
               1
     1  C   -0.091377
     2  C   -0.089053
     3  C    0.041963
     4  C   -0.116883
     5  C   -0.093646
     6  C   -0.073573
     7  H    0.098657
     8  H    0.118181
     9  H    0.103938
    10  H    0.097041
    11  H    0.097729
    12  C    0.329326
    13  C    0.053416
    14  C   -0.095537
    15  C   -0.119697
    16  C   -0.083907
    17  H    0.128080
    18  C   -0.086667
    19  H    0.117318
    20  C    0.110035
    21  H    0.121394
    22  H    0.119745
    23  O   -0.457992
    24  C    0.242454
    25  N   -0.470944
 Sum of Mulliken charges =  -0.00000

 Dipole moment (field-independent basis, Debye):
    X=              4.4044    Y=             -1.5688    Z=             -0.1354  Tot=              4.6774
 Quadrupole moment (field-independent basis, Debye-Ang):
   XX=           -108.2105   YY=            -91.3141   ZZ=            -89.5371
   XY=            -13.2553   XZ=              3.0414   YZ=             -0.8572

  Exact polarizability:     245.608       3.554     141.980      13.212      -0.703      71.791
 Approx polarizability:     353.514      16.636     268.548      26.298      -2.114     120.088

                      1                      2                      3
                      A                      A                      A
 Frequencies --     37.6410                56.0587                70.8264
 Red. masses --      4.8323                 5.8967                 5.0328
 Frc consts  --      0.0040                 0.0109                 0.0149
 IR Inten    --      0.0874                 1.1239                 3.1926

                      4                      5                      6
                      A                      A                      A
 Frequencies --    106.2237               144.4469               163.9535
 Red. masses --      6.6850                 7.6494                 6.6557
 Frc consts  --      0.0444                 0.0940                 0.1054
 IR Inten    --      4.8578                 7.1348                 0.9034

                      7                      8                      9
                      A                      A                      A
 Frequencies --    237.8786               245.9781               267.9118
 Red. masses --      5.7961                 5.7091                 6.9909
 Frc consts  --      0.1932                 0.2035                 0.2956
 IR Inten    --      0.1329                 4.0537                 0.1918

                     10                     11                     12
                      A                      A                      A
 Frequencies --    365.8813               411.0432               422.2763
 Red. masses --      8.3963                 2.9689                 4.3593
 Frc consts  --      0.6622                 0.2955                 0.4580
 IR Inten    --      5.7780                 0.2379                 0.9078

                     13                     14                     15
                      A                      A                      A
 Frequencies --    425.5929               438.8133               533.6039
 Red. masses --      3.7856                 4.4937                 6.2859
 Frc consts  --      0.4040                 0.5098                 1.0545
 IR Inten    --      0.6213                 1.8009                 3.9476

                     16                     17                     18
                      A                      A                      A
 Frequencies --    554.1698               563.5708               601.9111
 Red. masses --      7.9044                 5.3744                 4.4646
 Frc consts  --      1.4302                 1.0057                 0.9530
 IR Inten    --      6.4263                 5.7046                10.1692

                     19                     20                     21
                      A                      A                      A
 Frequencies --    632.7776               658.1590               685.9965
 Red. masses --      6.4294                 6.8662                 4.7025
 Frc consts  --      1.5168                 1.7524                 1.3038
 IR Inten    --      0.8024                 2.5219                24.7979

                     22                     23                     24
                      A                      A                      A
 Frequencies --    704.6969               714.6685               756.7794
 Red. masses --      5.6491                 1.6918                 2.7435
 Frc consts  --      1.6528                 0.5091                 0.9257
 IR Inten    --      6.5559                46.7051                21.8616

                     25                     26                     27
                      A                      A                      A
 Frequencies --    800.6578               812.9210               862.2717
 Red. masses --      5.4135                 2.5283                 1.2592
 Frc consts  --      2.0447                 0.9844                 0.5516
 IR Inten    --      4.6912                 5.4970                 5.2783

                     28                     29                     30
                      A                      A                      A
 Frequencies --    870.0026               877.7819               946.0212
 Red. masses --      1.2851                 1.7634                 2.6907
 Frc consts  --      0.5731                 0.8005                 1.4188
 IR Inten    --      3.6669                18.5404                53.6439

                     31                     32                     33
                      A                      A                      A
 Frequencies --    960.8067               984.8795               992.5045
 Red. masses --      1.9663                 1.3429                 1.3481
 Frc consts  --      1.0695                 0.7674                 0.7824
 IR Inten    --     26.9946                 2.3084                 1.6544

                     34                     35                     36
                      A                      A                      A
 Frequencies --    993.1639              1010.6563              1020.9638
 Red. masses --      1.3334                 1.2785                 6.0131
 Frc consts  --      0.7749                 0.7694                 3.6929
 IR Inten    --      5.6176                 0.7732                 1.3356

                     37                     38                     39
                      A                      A                      A
 Frequencies --   1041.8357              1057.3190              1113.4416
 Red. masses --      2.7560                 2.1247                 1.5435
 Frc consts  --      1.7625                 1.3995                 1.1274
 IR Inten    --      2.4558                 1.4822                 4.5056

                     40                     41                     42
                      A                      A                      A
 Frequencies --   1142.5404              1175.9435              1191.1044
 Red. masses --      1.3412                 3.2695                 1.1070
 Frc consts  --      1.0315                 2.6638                 0.9253
 IR Inten    --      3.9748                 5.5033                 0.1490

                     43                     44                     45
                      A                      A                      A
 Frequencies --   1205.7033              1212.4247              1232.3495
 Red. masses --      1.1610                 1.2673                 3.0698
 Frc consts  --      0.9944                 1.0976                 2.7468
 IR Inten    --     30.3992                 1.7405                 2.7789

                     46                     47                     48
                      A                      A                      A
 Frequencies --   1303.9159              1336.3615              1348.6924
 Red. masses --      3.9072                 1.4713                 1.7158
 Frc consts  --      3.9140                 1.5481                 1.8389
 IR Inten    --    306.4651                10.1274                28.4005

                     49                     50                     51
                      A                      A                      A
 Frequencies --   1349.7066              1368.4983              1445.9191
 Red. masses --      6.2024                 3.6491                 2.9008
 Frc consts  --      6.6571                 4.0264                 3.5732
 IR Inten    --     35.8083                 2.5776                20.5087

                     52                     53                     54
                      A                      A                      A
 Frequencies --   1490.0383              1534.1019              1544.2158
 Red. masses --      2.2763                 2.2195                 2.4527
 Frc consts  --      2.9777                 3.0777                 3.4460
 IR Inten    --     17.3841                 1.5762                 1.6770

                     55                     56                     57
                      A                      A                      A
 Frequencies --   1607.4189              1635.6039              1657.6495
 Red. masses --      6.8107                 5.5297                 5.6085
 Frc consts  --     10.3682                 8.7159                 9.0799
 IR Inten    --      5.1071                 6.3728                25.4011

                     58                     59                     60
                      A                      A                      A
 Frequencies --   1663.7112              1745.9596              2352.4838
 Red. masses --      5.7511                12.3917                12.6804
 Frc consts  --      9.3791                22.2561                41.3463
 IR Inten    --     11.2164               156.0428                24.7519

                     61                     62                     63
                      A                      A                      A
 Frequencies --   3186.6405              3197.0958              3206.4849
 Red. masses --      1.0857                 1.0891                 1.0929
 Frc consts  --      6.4955                 6.5591                 6.6207
 IR Inten    --      0.1312                 7.8562                25.0797

                     64                     65                     66
                      A                      A                      A
 Frequencies --   3211.2257              3213.5596              3216.1150
 Red. masses --      1.0892                 1.0891                 1.0945
 Frc consts  --      6.6179                 6.6264                 6.6702
 IR Inten    --      2.1836                 1.2438                 7.5378

                     67                     68                     69
                      A                      A                      A
 Frequencies --   3221.5796              3225.8375              3228.3095
 Red. masses --      1.0948                 1.0948                 1.0954
 Frc consts  --      6.6947                 6.7124                 6.7263
 IR Inten    --      7.0816                 3.8077                 1.3723

 - Thermochemistry -
 -------------------
 Temperature   298.150 Kelvin.  Pressure   1.00000 Atm.
 Atom     1 has atomic number  6 and mass  12.00000

 Molecular mass:   207.06841 amu.
 Principal axes and moments of inertia in atomic units:
                           1         2         3
     Eigenvalues --  1215.837927052.915917979.53943
           X            0.99995  -0.01005   0.00228
           Y            0.01005   0.99995  -0.00156
           Z           -0.00227   0.00158   1.00000
 This molecule is an asymmetric top.
 Rotational symmetry number  1.
 Warning -- assumption of classical behavior for rotation
           may cause significant error
 Rotational temperatures (Kelvin)      0.07124     0.01228     0.01085
 Rotational constants (GHZ):           1.48436     0.25589     0.22617
 Zero-point vibrational energy     500022.8 (Joules/Mol)
                                  119.50831 (Kcal/Mol)
 Warning -- explicit consideration of  18 degrees of freedom as
           vibrations may cause significant error
 Vibrational temperatures:     54.16    80.66   101.90   152.83   207.83
          (Kelvin)            235.89   342.25   353.91   385.47   526.42
                              591.40   607.56   612.33   631.35   767.74
                              797.33   810.85   866.02   910.43   946.94
                              987.00  1013.90  1028.25  1088.84  1151.97
                             1169.61  1240.62  1251.74  1262.93  1361.11
                             1382.39  1417.02  1427.99  1428.94  1454.11
                             1468.94  1498.97  1521.25  1601.99  1643.86
                             1691.92  1713.73  1734.74  1744.41  1773.08
                             1876.04  1922.73  1940.47  1941.93  1968.96
                             2080.36  2143.83  2207.23  2221.78  2312.72
                             2353.27  2384.99  2393.71  2512.05  3384.70
                             4584.86  4599.91  4613.42  4620.24  4623.60
                             4627.27  4635.13  4641.26  4644.82

 Zero-point correction=                           0.190449 (Hartree/Particle)
 Thermal correction to Energy=                    0.203003
 Thermal correction to Enthalpy=                  0.203947
 Thermal correction to Gibbs Free Energy=         0.150170
 Sum of electronic and zero-point Energies=           -668.753297
 Sum of electronic and thermal Energies=              -668.740743
 Sum of electronic and thermal Enthalpies=            -668.739799
 Sum of electronic and thermal Free Energies=         -668.793576

                     E (Thermal)             CV                S
                      KCal/Mol        Cal/Mol-Kelvin    Cal/Mol-Kelvin
 Total                  127.386             48.638            113.184
 Electronic               0.000              0.000              0.000
 Translational            0.889              2.981             41.888
 Rotational               0.889              2.981             32.592
 Vibrational            125.609             42.676             38.704
 Vibration     1          0.594              1.982              5.380
 Vibration     2          0.596              1.975              4.591
 Vibration     3          0.598              1.968              4.130
 Vibration     4          0.605              1.944              3.337
 Vibration     5          0.616              1.909              2.744
 Vibration     6          0.623              1.887              2.504
 Vibration     7          0.656              1.783              1.819
 Vibration     8          0.660              1.769              1.759
 Vibration     9          0.673              1.732              1.610
 Vibration    10          0.739              1.542              1.097
 Vibration    11          0.775              1.446              0.923
 Vibration    12          0.785              1.422              0.884
 Vibration    13          0.787              1.415              0.873
 Vibration    14          0.799              1.386              0.830
 Vibration    15          0.889              1.176              0.579
 Vibration    16          0.910              1.131              0.536
 Vibration    17          0.919              1.110              0.517
 Vibration    18          0.960              1.028              0.446

 Optimization completed.
    -- Stationary point found.
 Normal termination of Gaussian 16 at Thu May  4 17:34:21 2023.
