 Gaussian 16, Revision C.01,
 Gaussian 16:  ES64L-G16RevC.01  3-Jul-2019

 ------------------------------------------------------
 # opt freq b3lyp/6-31g(d,p) geom=connectivity em=gd3bj
 ------------------------------------------------------

 -------------------
 Title Card Required
 -------------------
 Symbolic Z-matrix:
 Charge =  0 Multiplicity = 1

 SCF Done:  E(RB3LYP) =  -420.848606176     A.U. after   12 cycles
 SCF Done:  E(RB3LYP) =  -420.849057956     A.U. after   11 cycles
 SCF Done:  E(RB3LYP) =  -420.849090118     A.U. after   11 cycles
 SCF Done:  E(RB3LYP) =  -420.849150244     A.U. after   12 cycles
 SCF Done:  E(RB3LYP) =  -420.838622958     A.U. after   15 cycles
 SCF Done:  E(RB3LYP) =  -420.852993846     A.U. after   14 cycles
 SCF Done:  E(RB3LYP) =  -420.859041472     A.U. after   15 cycles
 SCF Done:  E(RB3LYP) =  -420.861097143     A.U. after   15 cycles
 SCF Done:  E(RB3LYP) =  -420.861606510     A.U. after   12 cycles
 SCF Done:  E(RB3LYP) =  -420.861756609     A.U. after   11 cycles
 SCF Done:  E(RB3LYP) =  -420.861763802     A.U. after    9 cycles
 SCF Done:  E(RB3LYP) =  -420.861764381     A.U. after    8 cycles
 Optimization completed.
    -- Stationary point found.

 1\1\GINC-NODE660\FOpt\RB3LYP\6-31G(d,p)\C7H6O2\XIAOYUY\04-May-2023\0\\
 # opt freq b3lyp/6-31g(d,p) geom=connectivity em=gd3bj\\Title Card Req
 uired\\0,1\C,-3.4128431885,0.3925741054,-0.2365328865\C,-2.0250289957,
 0.3295546949,-0.1632220362\C,-1.2849888462,1.488999004,0.1001706339\C,
 -1.9408750471,2.7120382084,0.2897303397\C,-3.3305411448,2.7699702427,0
 .2152799844\C,-4.0663022996,1.6127417881,-0.0473132838\H,-3.9862479845
 ,-0.5060502242,-0.4407157762\H,-1.4917640863,-0.6035637528,-0.30590397
 4\H,-1.3603616811,3.6039654334,0.4928387305\H,-3.8403373305,3.71690240

 Normal termination of Gaussian 16 at Thu May  4 16:43:18 2023.

 ----------------------------------------------------------------------
 #N Geom=AllCheck Guess=TCheck SCRF=Check GenChk RB3LYP/6-31G(d,p) Freq
 ----------------------------------------------------------------------

 Structure from the checkpoint file:  "by_prouct_acid.chk"
 -------------------
 Title Card Required
 -------------------
 Charge =  0 Multiplicity = 1

                         Standard orientation:
 ---------------------------------------------------------------------
 Center     Atomic      Atomic             Coordinates (Angstroms)
 Number     Number       Type             X           Y           Z
 ---------------------------------------------------------------------
      1          6           0        1.901796   -1.186529   -0.000145
      2          6           0        0.511082   -1.222450   -0.000100
      3          6           0       -0.219620   -0.027703   -0.000029
      4          6           0        0.448529    1.203361    0.000127
      5          6           0        1.841055    1.234056    0.000151
      6          6           0        2.567485    0.041673   -0.000038
      7          1           0        2.467966   -2.112520   -0.000150
      8          1           0       -0.031590   -2.161038   -0.000146
      9          1           0       -0.124808    2.122637    0.000379
     10          1           0        2.360348    2.187169    0.000236
     11          1           0        3.652946    0.069334   -0.000009
     12          6           0       -1.701151   -0.121189   -0.000022
     13          8           0       -2.333400   -1.158862    0.000324
     14          8           0       -2.311085    1.091707   -0.000288
     15          1           0       -3.264033    0.904347   -0.000273
 ---------------------------------------------------------------------

 SCF Done:  E(RB3LYP) =  -420.861764381     A.U. after    1 cycles

 The electronic state is 1-A.
 Alpha  occ. eigenvalues --  -19.19611 -19.13663 -10.32063 -10.20803 -10.20456
 Alpha  occ. eigenvalues --  -10.20312 -10.20080 -10.20054 -10.19989  -1.10429
 Alpha  occ. eigenvalues --   -1.01193  -0.86571  -0.77136  -0.75537  -0.66195
 Alpha  occ. eigenvalues --   -0.61635  -0.58684  -0.53357  -0.49245  -0.47380
 Alpha  occ. eigenvalues --   -0.45560  -0.44718  -0.44238  -0.43024  -0.39926
 Alpha  occ. eigenvalues --   -0.37140  -0.36356  -0.35086  -0.31867  -0.27657
 Alpha  occ. eigenvalues --   -0.26277  -0.26077
 Alpha virt. eigenvalues --   -0.04819  -0.00976   0.05783   0.07616   0.09678
 Alpha virt. eigenvalues --    0.14048   0.15617   0.16839   0.18087   0.18812
 Alpha virt. eigenvalues --    0.24279   0.26944   0.28852   0.29746   0.30015

 Mulliken charges:
               1
     1  C   -0.094153
     2  C   -0.092952
     3  C    0.037785
     4  C   -0.097162
     5  C   -0.093029
     6  C   -0.072961
     7  H    0.095293
     8  H    0.120196
     9  H    0.115326
    10  H    0.094000
    11  H    0.094254
    12  C    0.548163
    13  O   -0.477400
    14  O   -0.501247
    15  H    0.323886
 Sum of Mulliken charges =  -0.00000

 Dipole moment (field-independent basis, Debye):
    X=              1.3396    Y=              1.3701    Z=             -0.0004  Tot=              1.9162
 Quadrupole moment (field-independent basis, Debye-Ang):
   XX=            -43.4420   YY=            -49.5711   ZZ=            -52.9277
   XY=             -5.2053   XZ=              0.0019   YZ=              0.0021

  Exact polarizability:     106.859       0.871      84.679      -0.001       0.002      28.002
 Approx polarizability:     164.993       6.384     152.031      -0.003       0.003      42.906

                      1                      2                      3
                      A                      A                      A
 Frequencies --     69.7928               159.4053               217.1749
 Red. masses --      7.0678                 4.5384                 5.5431
 Frc consts  --      0.0203                 0.0679                 0.1540
 IR Inten    --      0.9328                 0.4715                 1.3853

                      4                      5                      6
                      A                      A                      A
 Frequencies --    385.8926               415.6856               434.7826
 Red. masses --      7.8826                 2.9418                 3.1408
 Frc consts  --      0.6916                 0.2995                 0.3498
 IR Inten    --      5.6858                 0.5016                 7.0602

                      7                      8                      9
                      A                      A                      A
 Frequencies --    498.7426               604.1947               632.8807
 Red. masses --      7.2009                 1.2664                 6.2932
 Frc consts  --      1.0553                 0.2724                 1.4851
 IR Inten    --      5.7285                65.8861                 0.9683

                     10                     11                     12
                      A                      A                      A
 Frequencies --    637.8034               704.2164               728.1835
 Red. masses --      4.7928                 2.3747                 1.8219
 Frc consts  --      1.1487                 0.6939                 0.5692
 IR Inten    --     51.6671                 1.5227               121.7889

                     13                     14                     15
                      A                      A                      A
 Frequencies --    780.7388               816.1659               868.4579
 Red. masses --      4.7200                 2.8033                 1.2458
 Frc consts  --      1.6951                 1.1002                 0.5536
 IR Inten    --      9.8705                 0.0230                 0.0598

                     16                     17                     18
                      A                      A                      A
 Frequencies --    958.1627               989.6642              1011.9218
 Red. masses --      1.4072                 1.3546                 1.2766
 Frc consts  --      0.7611                 0.7817                 0.7702
 IR Inten    --      1.2360                 0.0855                 0.0598

                     19                     20                     21
                      A                      A                      A
 Frequencies --   1022.0898              1053.7060              1102.4608
 Red. masses --      6.2877                 2.3628                 1.7939
 Frc consts  --      3.8701                 1.5457                 1.2846
 IR Inten    --      0.9570                11.3079                57.6795

                     22                     23                     24
                      A                      A                      A
 Frequencies --   1129.2124              1190.2111              1196.0121
 Red. masses --      2.9636                 1.1050                 1.2805
 Frc consts  --      2.2265                 0.9223                 1.0792
 IR Inten    --     60.4507                 1.2733               131.7020

                     25                     26                     27
                      A                      A                      A
 Frequencies --   1219.0870              1347.6710              1369.8130
 Red. masses --      1.5214                 1.4288                 5.4863
 Frc consts  --      1.3322                 1.5290                 6.0653
 IR Inten    --    105.6026                 3.9332                 4.2317

                     28                     29                     30
                      A                      A                      A
 Frequencies --   1394.1172              1494.6926              1538.4872
 Red. masses --      2.8735                 2.2976                 2.3234
 Frc consts  --      3.2905                 3.0243                 3.2401
 IR Inten    --    136.3501                17.2906                 2.0892

                     31                     32                     33
                      A                      A                      A
 Frequencies --   1642.2911              1662.9594              1820.7620
 Red. masses --      5.8568                 5.6597                 9.9837
 Frc consts  --      9.3071                 9.2217                19.5007
 IR Inten    --      4.6618                17.7680               295.9608

                     34                     35                     36
                      A                      A                      A
 Frequencies --   3185.5696              3197.8827              3207.6450
 Red. masses --      1.0859                 1.0900                 1.0950
 Frc consts  --      6.4924                 6.5675                 6.6378
 IR Inten    --      0.4722                13.8222                18.4772

                     37                     38                     39
                      A                      A                      A
 Frequencies --   3223.8452              3229.7326              3767.7745
 Red. masses --      1.0939                 1.0937                 1.0643
 Frc consts  --      6.6985                 6.7220                 8.9020
 IR Inten    --      4.9937                 2.8810                75.4824

 - Thermochemistry -
 -------------------
 Temperature   298.150 Kelvin.  Pressure   1.00000 Atm.
 Atom     1 has atomic number  6 and mass  12.00000

 Molecular mass:   122.03678 amu.
 Principal axes and moments of inertia in atomic units:
                           1         2         3
     Eigenvalues --   466.331591472.469871938.80143
           X            0.99995  -0.01023   0.00000
           Y            0.01023   0.99995   0.00001
           Z           -0.00000  -0.00001   1.00000
 This molecule is an asymmetric top.
 Rotational symmetry number  1.
 Warning -- assumption of classical behavior for rotation
           may cause significant error
 Rotational temperatures (Kelvin)      0.18573     0.05882     0.04467
 Rotational constants (GHZ):           3.87008     1.22566     0.93085
 Zero-point vibrational energy     304508.8 (Joules/Mol)
                                   72.77934 (Kcal/Mol)
 Warning -- explicit consideration of   8 degrees of freedom as
           vibrations may cause significant error
 Vibrational temperatures:    100.42   229.35   312.47   555.21   598.08
          (Kelvin)            625.56   717.58   869.30   910.57   917.66
                             1013.21  1047.69  1123.31  1174.28  1249.52
                             1378.58  1423.91  1455.93  1470.56  1516.05
                             1586.20  1624.68  1712.45  1720.79  1753.99
                             1939.00  1970.86  2005.82  2150.53  2213.54
                             2362.89  2392.63  2619.67  4583.32  4601.04
                             4615.09  4638.39  4646.86  5420.99

 Zero-point correction=                           0.115981 (Hartree/Particle)
 Thermal correction to Energy=                    0.123080
 Thermal correction to Enthalpy=                  0.124024
 Thermal correction to Gibbs Free Energy=         0.083974
 Sum of electronic and zero-point Energies=           -420.745783
 Sum of electronic and thermal Energies=              -420.738685
 Sum of electronic and thermal Enthalpies=            -420.737740
 Sum of electronic and thermal Free Energies=         -420.777790

                     E (Thermal)             CV                S
                      KCal/Mol        Cal/Mol-Kelvin    Cal/Mol-Kelvin
 Total                   77.234             27.212             84.292
 Electronic               0.000              0.000              0.000
 Translational            0.889              2.981             40.312
 Rotational               0.889              2.981             28.678
 Vibrational             75.456             21.251             15.303
 Vibration     1          0.598              1.969              4.159
 Vibration     2          0.621              1.892              2.557
 Vibration     3          0.646              1.815              1.983
 Vibration     4          0.755              1.500              1.016
 Vibration     5          0.779              1.436              0.907
 Vibration     6          0.795              1.394              0.843
 Vibration     7          0.854              1.253              0.661
 Vibration     8          0.963              1.023              0.442

 Optimization completed.
    -- Stationary point found.

 1\1\GINC-NODE660\Freq\RB3LYP\6-31G(d,p)\C7H6O2\XIAOYUY\04-May-2023\0\\
 #N Geom=AllCheck Guess=TCheck SCRF=Check GenChk RB3LYP/6-31G(d,p) Freq
 \\Title Card Required\\0,1\C,-3.4128431885,0.3925741054,-0.2365328865\
 C,-2.0250289957,0.3295546949,-0.1632220362\C,-1.2849888462,1.488999004
 ,0.1001706339\C,-1.9408750471,2.7120382084,0.2897303397\C,-3.330541144
 8,2.7699702427,0.2152799844\C,-4.0663022996,1.6127417881,-0.0473132838
 \H,-3.9862479845,-0.5060502242,-0.4407157762\H,-1.4917640863,-0.603563
 7528,-0.305903974\H,-1.3603616811,3.6039654334,0.4928387305\H,-3.84033

 Normal termination of Gaussian 16 at Thu May  4 16:47:23 2023.
