 Gaussian 16, Revision C.01,
 Gaussian 16:  ES64L-G16RevC.01  3-Jul-2019

 ------------------------------------
 # opt freq b3lyp/6-31g(d,p) em=gd3bj
 ------------------------------------

 -------------------
 Title Card Required
 -------------------
 Symbolic Z-matrix:
 Charge =  0 Multiplicity = 1

 SCF Done:  E(RB3LYP) =  -399.736982011     A.U. after   15 cycles
 SCF Done:  E(RB3LYP) =  -399.739546368     A.U. after   12 cycles
 SCF Done:  E(RB3LYP) =  -399.739685657     A.U. after   11 cycles
 SCF Done:  E(RB3LYP) =  -399.739693138     A.U. after    9 cycles
 Optimization completed.
    -- Stationary point found.
 Normal termination of Gaussian 16 at Thu May  4 16:42:45 2023.

 ----------------------------------------------------------------------
 #N Geom=AllCheck Guess=TCheck SCRF=Check GenChk RB3LYP/6-31G(d,p) Freq
 ----------------------------------------------------------------------

 Structure from the checkpoint file:  "by_product_phenol.chk"
 -------------------
 Title Card Required
 -------------------
 Charge =  0 Multiplicity = 1

                         Standard orientation:
 ---------------------------------------------------------------------
 Center     Atomic      Atomic             Coordinates (Angstroms)
 Number     Number       Type             X           Y           Z
 ---------------------------------------------------------------------
      1          6           0       -1.081053   -0.000001   -0.000620
      2          6           0       -0.377534   -1.215553   -0.007561
      3          6           0        1.012465   -1.212914   -0.014599
      4          6           0        1.706953   -0.000004   -0.012648
      5          6           0        1.012468    1.212907   -0.014606
      6          6           0       -0.377531    1.215550   -0.007565
      7          1           0       -0.925942   -2.150934   -0.008587
      8          1           0        1.573055   -2.141005   -0.029918
      9          1           0        1.573058    2.140998   -0.029935
     10          1           0       -0.925936    2.150932   -0.008596
     11          6           0       -2.512892    0.000001    0.009520
     12          7           0       -3.676087    0.000006    0.019739
     13          8           0        3.086706   -0.000013   -0.074360
     14          1           0        3.447477    0.000152    0.822219
 ---------------------------------------------------------------------

 SCF Done:  E(RB3LYP) =  -399.739693138     A.U. after    1 cycles

 The electronic state is 1-A.
 Alpha  occ. eigenvalues --  -19.18280 -14.33423 -10.27048 -10.24075 -10.22767
 Alpha  occ. eigenvalues --  -10.22378 -10.22377 -10.21333 -10.21333  -1.06358
 Alpha  occ. eigenvalues --   -0.90628  -0.87643  -0.77839  -0.77578  -0.65323
 Alpha  occ. eigenvalues --   -0.64001  -0.56799  -0.55715  -0.49588  -0.47126
 Alpha  occ. eigenvalues --   -0.44934  -0.44879  -0.41171  -0.39433  -0.38821
 Alpha  occ. eigenvalues --   -0.35717  -0.33990  -0.32957  -0.31317  -0.27982
 Alpha  occ. eigenvalues --   -0.25891
 Alpha virt. eigenvalues --   -0.04919  -0.02797   0.03742   0.05521   0.07833
 Alpha virt. eigenvalues --    0.08574   0.12524   0.14379   0.16541   0.18254
 Alpha virt. eigenvalues --    0.19314   0.22653   0.27163   0.30188   0.31184

 Mulliken charges:
               1
     1  C    0.104058
     2  C   -0.086690
     3  C   -0.097018
     4  C    0.306696
     5  C   -0.097024
     6  C   -0.086689
     7  H    0.117946
     8  H    0.107264
     9  H    0.107261
    10  H    0.117946
    11  C    0.234812
    12  N   -0.477576
    13  O   -0.578162
    14  H    0.327179
 Sum of Mulliken charges =   0.00000

 Dipole moment (field-independent basis, Debye):
    X=              4.3786    Y=              0.0002    Z=              1.4989  Tot=              4.6281
 Quadrupole moment (field-independent basis, Debye-Ang):
   XX=            -65.7666   YY=            -43.9781   ZZ=            -51.0136
   XY=              0.0011   XZ=              5.9179   YZ=              0.0003

  Exact polarizability:     122.299       0.000      75.752       1.409       0.000      30.839
 Approx polarizability:     206.948       0.000     127.558       0.294       0.000      46.847

 ******    1 imaginary frequencies (negative Signs) ******

                      1                      2                      3
                      A                      A                      A
 Frequencies --   -387.7302               106.4394               152.8101
 Red. masses --      1.1034                 8.0084                 8.2173
 Frc consts  --      0.0977                 0.0535                 0.1131
 IR Inten    --    108.5980                 3.8305                 5.6331

                      4                      5                      6
                      A                      A                      A
 Frequencies --    266.5239               405.4060               418.2076
 Red. masses --      6.3749                 5.3366                10.2084
 Frc consts  --      0.2668                 0.5168                 1.0519
 IR Inten    --      4.9764                 0.1093                 0.4254

                      7                      8                      9
                      A                      A                      A
 Frequencies --    420.2371               467.9390               558.1864
 Red. masses --      3.1097                 4.2589                 7.3620
 Frc consts  --      0.3236                 0.5495                 1.3515
 IR Inten    --      0.0211                 6.4086                 0.3047

                     10                     11                     12
                      A                      A                      A
 Frequencies --    566.0619               662.9431               711.5067
 Red. masses --      3.4066                 7.2732                 6.1467
 Frc consts  --      0.6431                 1.8833                 1.8334
 IR Inten    --     19.7996                 0.0041                12.3922

                     13                     14                     15
                      A                      A                      A
 Frequencies --    720.0790               843.0920               847.0298
 Red. masses --      4.0768                 1.2403                 1.5046
 Frc consts  --      1.2455                 0.5194                 0.6360
 IR Inten    --      6.3946                 0.1394                49.9057

                     16                     17                     18
                      A                      A                      A
 Frequencies --    856.8314               967.9088               972.5399
 Red. masses --      6.3819                 1.2765                 1.3327
 Frc consts  --      2.7605                 0.7046                 0.7427
 IR Inten    --      5.8627                 0.8728                 0.0064

                     19                     20                     21
                      A                      A                      A
 Frequencies --   1034.8968              1126.7282              1176.1775
 Red. masses --      2.5627                 1.2850                 1.4796
 Frc consts  --      1.6171                 0.9612                 1.2060
 IR Inten    --      1.4311                 4.8257               207.9264

                     22                     23                     24
                      A                      A                      A
 Frequencies --   1198.4733              1227.8053              1304.7289
 Red. masses --      1.1938                 3.7183                 2.6382
 Frc consts  --      1.0103                 3.3026                 2.6460
 IR Inten    --     50.7645                 1.5309                12.2381

                     25                     26                     27
                      A                      A                      A
 Frequencies --   1320.3681              1335.1990              1448.8737
 Red. masses --      1.3581                 7.4928                 3.1792
 Frc consts  --      1.3950                 7.8702                 3.9321
 IR Inten    --      0.8784                 1.2346                 2.5800

                     28                     29                     30
                      A                      A                      A
 Frequencies --   1552.2651              1618.1565              1663.7468
 Red. masses --      2.6751                 7.0187                 5.9015
 Frc consts  --      3.7977                10.8280                 9.6247
 IR Inten    --     66.6701                 2.8610                53.2408

                     31                     32                     33
                      A                      A                      A
 Frequencies --   2351.0873              3208.3357              3209.5131
 Red. masses --     12.6790                 1.0886                 1.0887
 Frc consts  --     41.2925                 6.6020                 6.6077
 IR Inten    --     35.4279                 5.3510                 0.0039

                     34                     35                     36
                      A                      A                      A
 Frequencies --   3222.4318              3224.0452              3811.4849
 Red. masses --      1.0958                 1.0964                 1.0666
 Frc consts  --      6.7040                 6.7149                 9.1290
 IR Inten    --      6.1578                 0.8719                70.6261

 - Thermochemistry -
 -------------------
 Temperature   298.150 Kelvin.  Pressure   1.00000 Atm.
 Atom     1 has atomic number  6 and mass  12.00000

 Molecular mass:   119.03711 amu.
 Principal axes and moments of inertia in atomic units:
                           1         2         3
     Eigenvalues --   321.757741834.465082150.74344
           X            0.99999   0.00000   0.00540
           Y           -0.00000   1.00000   0.00000
           Z           -0.00540  -0.00000   0.99999
 This molecule is an asymmetric top.
 Rotational symmetry number  1.
 Rotational temperatures (Kelvin)      0.26919     0.04721     0.04027
 Rotational constants (GHZ):           5.60901     0.98380     0.83912
    1 imaginary frequencies ignored.
 Zero-point vibrational energy     269028.5 (Joules/Mol)
                                   64.29936 (Kcal/Mol)
 Warning -- explicit consideration of   9 degrees of freedom as
           vibrations may cause significant error
 Vibrational temperatures:    153.14   219.86   383.47   583.29   601.71
          (Kelvin)            604.63   673.26   803.11   814.44   953.83
                             1023.70  1036.03  1213.02  1218.69  1232.79
                             1392.60  1399.27  1488.99  1621.11  1692.26
                             1724.34  1766.54  1877.21  1899.72  1921.05
                             2084.61  2233.36  2328.17  2393.76  3382.69
                             4616.08  4617.77  4636.36  4638.68  5483.88

 Zero-point correction=                           0.102468 (Hartree/Particle)
 Thermal correction to Energy=                    0.109396
 Thermal correction to Enthalpy=                  0.110340
 Thermal correction to Gibbs Free Energy=         0.070905
 Sum of electronic and zero-point Energies=           -399.637226
 Sum of electronic and thermal Energies=              -399.630297
 Sum of electronic and thermal Enthalpies=            -399.629353
 Sum of electronic and thermal Free Energies=         -399.668788

                     E (Thermal)             CV                S
                      KCal/Mol        Cal/Mol-Kelvin    Cal/Mol-Kelvin
 Total                   68.647             26.320             82.998
 Electronic               0.000              0.000              0.000
 Translational            0.889              2.981             40.237
 Rotational               0.889              2.981             28.631
 Vibrational             66.869             20.359             14.130
 Vibration     1          0.605              1.944              3.333
 Vibration     2          0.619              1.900              2.637
 Vibration     3          0.672              1.735              1.619
 Vibration     4          0.770              1.458              0.943
 Vibration     5          0.781              1.431              0.898
 Vibration     6          0.783              1.426              0.891
 Vibration     7          0.825              1.321              0.743
 Vibration     8          0.914              1.122              0.527
 Vibration     9          0.922              1.105              0.512

 Optimization completed.
    -- Stationary point found.
 Normal termination of Gaussian 16 at Thu May  4 16:46:31 2023.
